<?xml version="1.0" encoding="UTF-8"?>

<!-- generated on 05/11/19 18:47:28 by Eclipse SUMO Version 1.2.0
<configuration xmlns:xsi="http://www.w3.org/2001/XMLSchema-instance" xsi:noNamespaceSchemaLocation="http://sumo.dlr.de/xsd/sumoConfiguration.xsd">

    <input>
        <net-file value="data/cross.net.xml"/>
        <route-files value="data/cross.rou.xml"/>
        <additional-files value="data/cross.det.xml"/>
    </input>

    <output>
        <tripinfo-output value="tripinfo.xml"/>
    </output>

    <time>
        <begin value="0"/>
    </time>

    <report>
        <verbose value="true"/>
        <no-step-log value="true"/>
    </report>

    <traci_server>
        <remote-port value="64961"/>
    </traci_server>

</configuration>
-->

<tripinfos xmlns:xsi="http://www.w3.org/2001/XMLSchema-instance" xsi:noNamespaceSchemaLocation="http://sumo.dlr.de/xsd/tripinfo_file.xsd">
    <tripinfo id="up_3" depart="1.00" departLane="53o_0" departPos="4.60" departSpeed="0.00" departDelay="0.00" arrival="90.00" arrivalLane="54i_0" arrivalPos="10.00" arrivalSpeed="18.28" duration="89.00" routeLength="1015.60" waitingTime="0.00" waitingCount="0" stopTime="0.00" timeLoss="22.07" rerouteNo="0" devices="tripinfo_up_3" vType="carNS" speedFactor="1.08" vaporized=""/>
    <tripinfo id="down_2" depart="1.00" departLane="54o_0" departPos="4.60" departSpeed="0.00" departDelay="0.00" arrival="97.00" arrivalLane="53i_0" arrivalPos="10.00" arrivalSpeed="16.01" duration="96.00" routeLength="1015.60" waitingTime="0.00" waitingCount="0" stopTime="0.00" timeLoss="24.53" rerouteNo="0" devices="tripinfo_down_2" vType="carNS" speedFactor="1.01" vaporized=""/>
    <tripinfo id="down_6" depart="4.00" departLane="54o_0" departPos="4.60" departSpeed="0.00" departDelay="0.00" arrival="98.00" arrivalLane="51i_0" arrivalPos="6.00" arrivalSpeed="17.41" duration="94.00" routeLength="1006.58" waitingTime="0.00" waitingCount="0" stopTime="0.00" timeLoss="25.73" rerouteNo="0" devices="tripinfo_down_6" vType="carNS" speedFactor="1.05" vaporized=""/>
    <tripinfo id="down_10" depart="7.00" departLane="54o_0" departPos="4.60" departSpeed="0.00" departDelay="0.00" arrival="100.00" arrivalLane="51i_0" arrivalPos="6.00" arrivalSpeed="17.07" duration="93.00" routeLength="1006.58" waitingTime="0.00" waitingCount="0" stopTime="0.00" timeLoss="27.37" rerouteNo="0" devices="tripinfo_down_10" vType="carNS" speedFactor="1.09" vaporized=""/>
    <tripinfo id="up_11" depart="7.00" departLane="53o_0" departPos="4.60" departSpeed="0.00" departDelay="0.00" arrival="104.00" arrivalLane="52i_0" arrivalPos="6.00" arrivalSpeed="13.16" duration="97.00" routeLength="1006.58" waitingTime="0.00" waitingCount="0" stopTime="0.00" timeLoss="27.77" rerouteNo="0" devices="tripinfo_up_11" vType="carNS" speedFactor="1.03" vaporized=""/>
    <tripinfo id="down_14" depart="10.00" departLane="54o_0" departPos="4.60" departSpeed="0.00" departDelay="0.00" arrival="104.00" arrivalLane="51i_0" arrivalPos="6.00" arrivalSpeed="15.02" duration="94.00" routeLength="1006.58" waitingTime="0.00" waitingCount="0" stopTime="0.00" timeLoss="22.02" rerouteNo="0" devices="tripinfo_down_14" vType="carNS" speedFactor="0.99" vaporized=""/>
    <tripinfo id="right_4" depart="4.00" departLane="51o_0" departPos="4.60" departSpeed="0.00" departDelay="0.00" arrival="111.00" arrivalLane="53i_0" arrivalPos="10.00" arrivalSpeed="18.73" duration="107.00" routeLength="1004.95" waitingTime="8.00" waitingCount="1" stopTime="0.00" timeLoss="38.09" rerouteNo="0" devices="tripinfo_right_4" vType="carWE" speedFactor="1.03" vaporized=""/>
    <tripinfo id="up_7" depart="4.00" departLane="53o_0" departPos="4.60" departSpeed="0.00" departDelay="0.00" arrival="112.00" arrivalLane="52i_0" arrivalPos="6.00" arrivalSpeed="12.14" duration="108.00" routeLength="1006.58" waitingTime="0.00" waitingCount="0" stopTime="0.00" timeLoss="27.41" rerouteNo="0" devices="tripinfo_up_7" vType="carNS" speedFactor="0.89" vaporized=""/>
    <tripinfo id="down_18" depart="13.00" departLane="54o_0" departPos="2.60" departSpeed="0.00" departDelay="0.00" arrival="114.00" arrivalLane="51i_0" arrivalPos="6.00" arrivalSpeed="12.97" duration="101.00" routeLength="1008.58" waitingTime="0.00" waitingCount="0" stopTime="0.00" timeLoss="24.67" rerouteNo="0" devices="tripinfo_down_18" vType="busNS" speedFactor="0.94" vaporized=""/>
    <tripinfo id="left_1" depart="1.00" departLane="52o_0" departPos="4.60" departSpeed="0.00" departDelay="0.00" arrival="115.00" arrivalLane="51i_0" arrivalPos="6.00" arrivalSpeed="13.57" duration="114.00" routeLength="1019.47" waitingTime="8.00" waitingCount="1" stopTime="0.00" timeLoss="37.61" rerouteNo="0" devices="tripinfo_left_1" vType="carWE" speedFactor="0.94" vaporized=""/>
    <tripinfo id="right_12" depart="10.00" departLane="51o_0" departPos="4.60" departSpeed="0.00" departDelay="0.00" arrival="115.00" arrivalLane="53i_0" arrivalPos="10.00" arrivalSpeed="14.30" duration="105.00" routeLength="1004.95" waitingTime="0.00" waitingCount="0" stopTime="0.00" timeLoss="37.15" rerouteNo="0" devices="tripinfo_right_12" vType="carWE" speedFactor="1.05" vaporized=""/>
    <tripinfo id="up_15" depart="10.00" departLane="53o_0" departPos="4.60" departSpeed="0.00" departDelay="0.00" arrival="115.00" arrivalLane="52i_0" arrivalPos="6.00" arrivalSpeed="17.45" duration="105.00" routeLength="1006.58" waitingTime="0.00" waitingCount="0" stopTime="0.00" timeLoss="27.72" rerouteNo="0" devices="tripinfo_up_15" vType="carNS" speedFactor="0.93" vaporized=""/>
    <tripinfo id="right_8" depart="7.00" departLane="51o_0" departPos="4.60" departSpeed="0.00" departDelay="0.00" arrival="118.00" arrivalLane="52i_0" arrivalPos="6.00" arrivalSpeed="11.82" duration="111.00" routeLength="1019.47" waitingTime="0.00" waitingCount="0" stopTime="0.00" timeLoss="33.76" rerouteNo="0" devices="tripinfo_right_8" vType="carWE" speedFactor="0.94" vaporized=""/>
    <tripinfo id="left_9" depart="7.00" departLane="52o_0" departPos="4.60" departSpeed="0.00" departDelay="0.00" arrival="118.00" arrivalLane="51i_0" arrivalPos="6.00" arrivalSpeed="11.80" duration="111.00" routeLength="1019.47" waitingTime="0.00" waitingCount="0" stopTime="0.00" timeLoss="27.16" rerouteNo="0" devices="tripinfo_left_9" vType="carWE" speedFactor="0.86" vaporized=""/>
    <tripinfo id="right_0" depart="1.00" departLane="51o_0" departPos="4.60" departSpeed="0.00" departDelay="0.00" arrival="120.00" arrivalLane="52i_0" arrivalPos="6.00" arrivalSpeed="12.74" duration="119.00" routeLength="1019.47" waitingTime="12.00" waitingCount="2" stopTime="0.00" timeLoss="51.05" rerouteNo="0" devices="tripinfo_right_0" vType="carWE" speedFactor="1.06" vaporized=""/>
    <tripinfo id="left_5" depart="4.00" departLane="52o_0" departPos="4.60" departSpeed="0.00" departDelay="0.00" arrival="123.00" arrivalLane="54i_0" arrivalPos="10.00" arrivalSpeed="14.15" duration="119.00" routeLength="1004.95" waitingTime="0.00" waitingCount="0" stopTime="0.00" timeLoss="33.43" rerouteNo="0" devices="tripinfo_left_5" vType="carWE" speedFactor="0.83" vaporized=""/>
    <tripinfo id="left_13" depart="10.00" departLane="52o_0" departPos="4.60" departSpeed="0.00" departDelay="0.00" arrival="125.00" arrivalLane="54i_0" arrivalPos="10.00" arrivalSpeed="18.28" duration="115.00" routeLength="1004.95" waitingTime="1.00" waitingCount="1" stopTime="0.00" timeLoss="51.56" rerouteNo="0" devices="tripinfo_left_13" vType="carWE" speedFactor="1.12" vaporized=""/>
    <tripinfo id="left_17" depart="13.00" departLane="52o_0" departPos="6.00" departSpeed="0.00" departDelay="0.00" arrival="128.00" arrivalLane="54i_0" arrivalPos="10.00" arrivalSpeed="17.33" duration="115.00" routeLength="1003.55" waitingTime="0.00" waitingCount="0" stopTime="0.00" timeLoss="39.50" rerouteNo="0" devices="tripinfo_left_17" vType="busWE" speedFactor="0.94" vaporized=""/>
    <tripinfo id="right_16" depart="13.00" departLane="51o_0" departPos="6.00" departSpeed="0.00" departDelay="0.00" arrival="130.00" arrivalLane="53i_0" arrivalPos="10.00" arrivalSpeed="14.25" duration="117.00" routeLength="1003.55" waitingTime="0.00" waitingCount="0" stopTime="0.00" timeLoss="35.80" rerouteNo="0" devices="tripinfo_right_16" vType="busWE" speedFactor="0.88" vaporized=""/>
    <tripinfo id="left_21" depart="16.00" departLane="52o_0" departPos="6.00" departSpeed="0.00" departDelay="0.00" arrival="131.00" arrivalLane="54i_0" arrivalPos="10.00" arrivalSpeed="14.20" duration="115.00" routeLength="1003.55" waitingTime="0.00" waitingCount="0" stopTime="0.00" timeLoss="44.91" rerouteNo="0" devices="tripinfo_left_21" vType="busWE" speedFactor="1.01" vaporized=""/>
    <tripinfo id="right_20" depart="16.00" departLane="51o_0" departPos="6.00" departSpeed="0.00" departDelay="0.00" arrival="133.00" arrivalLane="53i_0" arrivalPos="10.00" arrivalSpeed="19.05" duration="117.00" routeLength="1003.55" waitingTime="0.00" waitingCount="0" stopTime="0.00" timeLoss="46.83" rerouteNo="0" devices="tripinfo_right_20" vType="busWE" speedFactor="1.02" vaporized=""/>
    <tripinfo id="left_25" depart="19.00" departLane="52o_0" departPos="4.60" departSpeed="0.00" departDelay="0.00" arrival="135.00" arrivalLane="54i_0" arrivalPos="10.00" arrivalSpeed="15.45" duration="116.00" routeLength="1004.95" waitingTime="0.00" waitingCount="0" stopTime="0.00" timeLoss="34.79" rerouteNo="0" devices="tripinfo_left_25" vType="carWE" speedFactor="0.87" vaporized=""/>
    <tripinfo id="right_60" depart="46.00" departLane="51o_0" departPos="4.60" departSpeed="0.00" departDelay="0.00" arrival="135.00" arrivalLane="52i_0" arrivalPos="6.00" arrivalSpeed="13.91" duration="89.00" routeLength="1019.47" waitingTime="0.00" waitingCount="0" stopTime="0.00" timeLoss="22.38" rerouteNo="0" devices="tripinfo_right_60" vType="carWE" speedFactor="1.08" vaporized=""/>
    <tripinfo id="left_29" depart="22.00" departLane="52o_0" departPos="4.60" departSpeed="0.00" departDelay="0.00" arrival="138.00" arrivalLane="54i_0" arrivalPos="10.00" arrivalSpeed="9.60" duration="116.00" routeLength="1004.95" waitingTime="0.00" waitingCount="0" stopTime="0.00" timeLoss="39.33" rerouteNo="0" devices="tripinfo_left_29" vType="carWE" speedFactor="0.93" vaporized=""/>
    <tripinfo id="right_24" depart="19.00" departLane="51o_0" departPos="4.60" departSpeed="0.00" departDelay="0.00" arrival="139.00" arrivalLane="53i_0" arrivalPos="10.00" arrivalSpeed="15.48" duration="120.00" routeLength="1004.95" waitingTime="0.00" waitingCount="0" stopTime="0.00" timeLoss="33.69" rerouteNo="0" devices="tripinfo_right_24" vType="carWE" speedFactor="0.83" vaporized=""/>
    <tripinfo id="left_33" depart="25.00" departLane="52o_0" departPos="4.60" departSpeed="0.00" departDelay="0.00" arrival="140.00" arrivalLane="54i_0" arrivalPos="10.00" arrivalSpeed="17.90" duration="115.00" routeLength="1004.95" waitingTime="0.00" waitingCount="0" stopTime="0.00" timeLoss="54.09" rerouteNo="0" devices="tripinfo_left_33" vType="carWE" speedFactor="1.17" vaporized=""/>
    <tripinfo id="right_28" depart="22.00" departLane="51o_0" departPos="4.60" departSpeed="0.00" departDelay="0.00" arrival="141.00" arrivalLane="53i_0" arrivalPos="10.00" arrivalSpeed="14.61" duration="119.00" routeLength="1004.95" waitingTime="0.00" waitingCount="0" stopTime="0.00" timeLoss="56.23" rerouteNo="0" devices="tripinfo_right_28" vType="carWE" speedFactor="1.13" vaporized=""/>
    <tripinfo id="left_61" depart="46.00" departLane="52o_0" departPos="4.60" departSpeed="0.00" departDelay="0.00" arrival="141.00" arrivalLane="51i_0" arrivalPos="6.00" arrivalSpeed="16.58" duration="95.00" routeLength="1019.47" waitingTime="0.00" waitingCount="0" stopTime="0.00" timeLoss="30.89" rerouteNo="0" devices="tripinfo_left_61" vType="carWE" speedFactor="1.12" vaporized=""/>
    <tripinfo id="left_37" depart="28.00" departLane="52o_0" departPos="4.60" departSpeed="0.00" departDelay="0.00" arrival="142.00" arrivalLane="54i_0" arrivalPos="10.00" arrivalSpeed="21.60" duration="114.00" routeLength="1004.95" waitingTime="0.00" waitingCount="0" stopTime="0.00" timeLoss="53.46" rerouteNo="0" devices="tripinfo_left_37" vType="carWE" speedFactor="1.18" vaporized=""/>
    <tripinfo id="right_32" depart="25.00" departLane="51o_0" departPos="4.60" departSpeed="0.00" departDelay="0.00" arrival="144.00" arrivalLane="53i_0" arrivalPos="10.00" arrivalSpeed="18.57" duration="119.00" routeLength="1004.95" waitingTime="0.00" waitingCount="0" stopTime="0.00" timeLoss="48.03" rerouteNo="0" devices="tripinfo_right_32" vType="carWE" speedFactor="1.01" vaporized=""/>
    <tripinfo id="left_41" depart="31.00" departLane="52o_0" departPos="4.60" departSpeed="0.00" departDelay="0.00" arrival="145.00" arrivalLane="54i_0" arrivalPos="10.00" arrivalSpeed="9.46" duration="114.00" routeLength="1004.95" waitingTime="0.00" waitingCount="0" stopTime="0.00" timeLoss="39.94" rerouteNo="0" devices="tripinfo_left_41" vType="carWE" speedFactor="0.96" vaporized=""/>
    <tripinfo id="right_36" depart="28.00" departLane="51o_0" departPos="4.60" departSpeed="0.00" departDelay="0.00" arrival="146.00" arrivalLane="53i_0" arrivalPos="10.00" arrivalSpeed="13.51" duration="118.00" routeLength="1004.95" waitingTime="0.00" waitingCount="0" stopTime="0.00" timeLoss="45.12" rerouteNo="0" devices="tripinfo_right_36" vType="carWE" speedFactor="0.97" vaporized=""/>
    <tripinfo id="left_45" depart="34.00" departLane="52o_0" departPos="4.60" departSpeed="0.00" departDelay="0.00" arrival="147.00" arrivalLane="54i_0" arrivalPos="10.00" arrivalSpeed="12.10" duration="113.00" routeLength="1004.95" waitingTime="0.00" waitingCount="0" stopTime="0.00" timeLoss="47.70" rerouteNo="0" devices="tripinfo_left_45" vType="carWE" speedFactor="1.09" vaporized=""/>
    <tripinfo id="right_84" depart="64.00" departLane="51o_0" departPos="6.00" departSpeed="0.00" departDelay="0.00" arrival="147.00" arrivalLane="52i_0" arrivalPos="6.00" arrivalSpeed="14.66" duration="83.00" routeLength="1018.07" waitingTime="0.00" waitingCount="0" stopTime="0.00" timeLoss="20.55" rerouteNo="0" devices="tripinfo_right_84" vType="busWE" speedFactor="1.15" vaporized=""/>
    <tripinfo id="right_40" depart="31.00" departLane="51o_0" departPos="4.60" departSpeed="0.00" departDelay="0.00" arrival="148.00" arrivalLane="53i_0" arrivalPos="10.00" arrivalSpeed="18.79" duration="117.00" routeLength="1004.95" waitingTime="0.00" waitingCount="0" stopTime="0.00" timeLoss="47.89" rerouteNo="0" devices="tripinfo_right_40" vType="carWE" speedFactor="1.03" vaporized=""/>
    <tripinfo id="right_44" depart="34.00" departLane="51o_0" departPos="4.60" departSpeed="0.00" departDelay="0.00" arrival="150.00" arrivalLane="53i_0" arrivalPos="10.00" arrivalSpeed="17.21" duration="116.00" routeLength="1004.95" waitingTime="0.00" waitingCount="0" stopTime="0.00" timeLoss="47.64" rerouteNo="0" devices="tripinfo_right_44" vType="carWE" speedFactor="1.04" vaporized=""/>
    <tripinfo id="left_49" depart="37.00" departLane="52o_0" departPos="2.60" departSpeed="0.00" departDelay="0.00" arrival="150.00" arrivalLane="54i_0" arrivalPos="10.00" arrivalSpeed="16.39" duration="113.00" routeLength="1006.95" waitingTime="0.00" waitingCount="0" stopTime="0.00" timeLoss="29.06" rerouteNo="0" devices="tripinfo_left_49" vType="motorWE" speedFactor="0.85" vaporized=""/>
    <tripinfo id="left_53" depart="40.00" departLane="52o_0" departPos="4.60" departSpeed="0.00" departDelay="0.00" arrival="151.00" arrivalLane="54i_0" arrivalPos="10.00" arrivalSpeed="14.94" duration="111.00" routeLength="1004.95" waitingTime="0.00" waitingCount="0" stopTime="0.00" timeLoss="46.36" rerouteNo="0" devices="tripinfo_left_53" vType="carWE" speedFactor="1.10" vaporized=""/>
    <tripinfo id="right_48" depart="37.00" departLane="51o_0" departPos="2.60" departSpeed="0.00" departDelay="0.00" arrival="153.00" arrivalLane="53i_0" arrivalPos="10.00" arrivalSpeed="15.30" duration="116.00" routeLength="1006.95" waitingTime="0.00" waitingCount="0" stopTime="0.00" timeLoss="34.98" rerouteNo="0" devices="tripinfo_right_48" vType="motorWE" speedFactor="0.88" vaporized=""/>
    <tripinfo id="left_57" depart="43.00" departLane="52o_0" departPos="2.60" departSpeed="0.00" departDelay="0.00" arrival="153.00" arrivalLane="54i_0" arrivalPos="10.00" arrivalSpeed="22.00" duration="110.00" routeLength="1006.95" waitingTime="0.00" waitingCount="0" stopTime="0.00" timeLoss="47.33" rerouteNo="0" devices="tripinfo_left_57" vType="motorWE" speedFactor="1.14" vaporized=""/>
    <tripinfo id="right_52" depart="40.00" departLane="51o_0" departPos="4.60" departSpeed="0.00" departDelay="0.00" arrival="155.00" arrivalLane="53i_0" arrivalPos="10.00" arrivalSpeed="13.43" duration="115.00" routeLength="1004.95" waitingTime="0.00" waitingCount="0" stopTime="0.00" timeLoss="45.17" rerouteNo="0" devices="tripinfo_right_52" vType="carWE" speedFactor="1.02" vaporized=""/>
    <tripinfo id="left_65" depart="49.00" departLane="52o_0" departPos="4.60" departSpeed="0.00" departDelay="0.00" arrival="157.00" arrivalLane="54i_0" arrivalPos="10.00" arrivalSpeed="13.03" duration="108.00" routeLength="1004.95" waitingTime="0.00" waitingCount="0" stopTime="0.00" timeLoss="27.34" rerouteNo="0" devices="tripinfo_left_65" vType="carWE" speedFactor="0.88" vaporized=""/>
    <tripinfo id="right_56" depart="43.00" departLane="51o_0" departPos="2.60" departSpeed="0.00" departDelay="0.00" arrival="158.00" arrivalLane="53i_0" arrivalPos="10.00" arrivalSpeed="15.69" duration="115.00" routeLength="1006.95" waitingTime="0.00" waitingCount="0" stopTime="0.00" timeLoss="35.89" rerouteNo="0" devices="tripinfo_right_56" vType="motorWE" speedFactor="0.90" vaporized=""/>
    <tripinfo id="left_69" depart="52.00" departLane="52o_0" departPos="4.60" departSpeed="0.00" departDelay="0.00" arrival="159.00" arrivalLane="54i_0" arrivalPos="10.00" arrivalSpeed="16.73" duration="107.00" routeLength="1004.95" waitingTime="0.00" waitingCount="0" stopTime="0.00" timeLoss="37.66" rerouteNo="0" devices="tripinfo_left_69" vType="carWE" speedFactor="1.02" vaporized=""/>
    <tripinfo id="right_64" depart="49.00" departLane="51o_0" departPos="4.60" departSpeed="0.00" departDelay="0.00" arrival="160.00" arrivalLane="53i_0" arrivalPos="10.00" arrivalSpeed="14.50" duration="111.00" routeLength="1004.95" waitingTime="0.00" waitingCount="0" stopTime="0.00" timeLoss="35.23" rerouteNo="0" devices="tripinfo_right_64" vType="carWE" speedFactor="0.94" vaporized=""/>
    <tripinfo id="right_68" depart="52.00" departLane="51o_0" departPos="4.60" departSpeed="0.00" departDelay="0.00" arrival="162.00" arrivalLane="53i_0" arrivalPos="10.00" arrivalSpeed="10.12" duration="110.00" routeLength="1004.95" waitingTime="0.00" waitingCount="0" stopTime="0.00" timeLoss="42.12" rerouteNo="0" devices="tripinfo_right_68" vType="carWE" speedFactor="1.04" vaporized=""/>
    <tripinfo id="left_73" depart="55.00" departLane="52o_0" departPos="2.60" departSpeed="0.00" departDelay="0.00" arrival="162.00" arrivalLane="54i_0" arrivalPos="10.00" arrivalSpeed="15.81" duration="107.00" routeLength="1006.95" waitingTime="0.00" waitingCount="0" stopTime="0.00" timeLoss="39.16" rerouteNo="0" devices="tripinfo_left_73" vType="motorWE" speedFactor="1.06" vaporized=""/>
    <tripinfo id="right_96" depart="73.00" departLane="51o_0" departPos="4.60" departSpeed="0.00" departDelay="0.00" arrival="162.00" arrivalLane="52i_0" arrivalPos="6.00" arrivalSpeed="14.18" duration="89.00" routeLength="1019.47" waitingTime="0.00" waitingCount="0" stopTime="0.00" timeLoss="17.86" rerouteNo="0" devices="tripinfo_right_96" vType="carWE" speedFactor="1.01" vaporized=""/>
    <tripinfo id="left_77" depart="58.00" departLane="52o_0" departPos="4.60" departSpeed="0.00" departDelay="0.00" arrival="164.00" arrivalLane="54i_0" arrivalPos="10.00" arrivalSpeed="17.23" duration="106.00" routeLength="1004.95" waitingTime="0.00" waitingCount="0" stopTime="0.00" timeLoss="33.25" rerouteNo="0" devices="tripinfo_left_77" vType="carWE" speedFactor="0.98" vaporized=""/>
    <tripinfo id="right_72" depart="55.00" departLane="51o_0" departPos="2.60" departSpeed="0.00" departDelay="0.00" arrival="165.00" arrivalLane="53i_0" arrivalPos="10.00" arrivalSpeed="18.15" duration="110.00" routeLength="1006.95" waitingTime="0.00" waitingCount="0" stopTime="0.00" timeLoss="33.98" rerouteNo="0" devices="tripinfo_right_72" vType="motorWE" speedFactor="0.94" vaporized=""/>
    <tripinfo id="left_81" depart="61.00" departLane="52o_0" departPos="4.60" departSpeed="0.00" departDelay="0.00" arrival="166.00" arrivalLane="54i_0" arrivalPos="10.00" arrivalSpeed="16.75" duration="105.00" routeLength="1004.95" waitingTime="0.00" waitingCount="0" stopTime="0.00" timeLoss="33.89" rerouteNo="0" devices="tripinfo_left_81" vType="carWE" speedFactor="1.00" vaporized=""/>
    <tripinfo id="left_85" depart="64.00" departLane="52o_0" departPos="6.00" departSpeed="0.00" departDelay="0.00" arrival="166.00" arrivalLane="51i_0" arrivalPos="6.00" arrivalSpeed="16.85" duration="102.00" routeLength="1018.07" waitingTime="0.00" waitingCount="0" stopTime="0.00" timeLoss="27.76" rerouteNo="0" devices="tripinfo_left_85" vType="busWE" speedFactor="0.98" vaporized=""/>
    <tripinfo id="right_76" depart="58.00" departLane="51o_0" departPos="4.60" departSpeed="0.00" departDelay="0.00" arrival="167.00" arrivalLane="53i_0" arrivalPos="10.00" arrivalSpeed="18.93" duration="109.00" routeLength="1004.95" waitingTime="0.00" waitingCount="0" stopTime="0.00" timeLoss="39.59" rerouteNo="0" devices="tripinfo_right_76" vType="carWE" speedFactor="1.03" vaporized=""/>
    <tripinfo id="right_100" depart="76.00" departLane="51o_0" departPos="4.60" departSpeed="0.00" departDelay="0.00" arrival="168.00" arrivalLane="52i_0" arrivalPos="6.00" arrivalSpeed="12.95" duration="92.00" routeLength="1019.47" waitingTime="0.00" waitingCount="0" stopTime="0.00" timeLoss="24.44" rerouteNo="0" devices="tripinfo_right_100" vType="carWE" speedFactor="1.07" vaporized=""/>
    <tripinfo id="right_80" depart="61.00" departLane="51o_0" departPos="4.60" departSpeed="0.00" departDelay="0.00" arrival="169.00" arrivalLane="53i_0" arrivalPos="10.00" arrivalSpeed="10.16" duration="108.00" routeLength="1004.95" waitingTime="0.00" waitingCount="0" stopTime="0.00" timeLoss="39.41" rerouteNo="0" devices="tripinfo_right_80" vType="carWE" speedFactor="1.03" vaporized=""/>
    <tripinfo id="left_89" depart="67.00" departLane="52o_0" departPos="4.60" departSpeed="0.00" departDelay="0.00" arrival="169.00" arrivalLane="54i_0" arrivalPos="10.00" arrivalSpeed="16.49" duration="102.00" routeLength="1004.95" waitingTime="0.00" waitingCount="0" stopTime="0.00" timeLoss="32.16" rerouteNo="0" devices="tripinfo_left_89" vType="carWE" speedFactor="1.02" vaporized=""/>
    <tripinfo id="right_88" depart="67.00" departLane="51o_0" departPos="4.60" departSpeed="0.00" departDelay="0.00" arrival="171.00" arrivalLane="53i_0" arrivalPos="10.00" arrivalSpeed="11.09" duration="104.00" routeLength="1004.95" waitingTime="0.00" waitingCount="0" stopTime="0.00" timeLoss="33.99" rerouteNo="0" devices="tripinfo_right_88" vType="carWE" speedFactor="1.01" vaporized=""/>
    <tripinfo id="left_105" depart="79.00" departLane="52o_0" departPos="4.60" departSpeed="0.00" departDelay="0.00" arrival="171.00" arrivalLane="54i_0" arrivalPos="10.00" arrivalSpeed="19.27" duration="92.00" routeLength="1004.95" waitingTime="0.00" waitingCount="0" stopTime="0.00" timeLoss="25.75" rerouteNo="0" devices="tripinfo_left_105" vType="carWE" speedFactor="1.07" vaporized=""/>
    <tripinfo id="right_112" depart="85.00" departLane="51o_0" departPos="2.60" departSpeed="0.00" departDelay="0.00" arrival="174.00" arrivalLane="52i_0" arrivalPos="6.00" arrivalSpeed="13.73" duration="89.00" routeLength="1021.47" waitingTime="0.00" waitingCount="0" stopTime="0.00" timeLoss="23.25" rerouteNo="0" devices="tripinfo_right_112" vType="motorWE" speedFactor="1.10" vaporized=""/>
    <tripinfo id="left_93" depart="70.00" departLane="52o_0" departPos="4.60" departSpeed="0.00" departDelay="0.00" arrival="176.00" arrivalLane="51i_0" arrivalPos="6.00" arrivalSpeed="12.51" duration="106.00" routeLength="1019.47" waitingTime="0.00" waitingCount="0" stopTime="0.00" timeLoss="27.76" rerouteNo="0" devices="tripinfo_left_93" vType="carWE" speedFactor="0.92" vaporized=""/>
    <tripinfo id="left_101" depart="76.00" departLane="52o_0" departPos="4.60" departSpeed="0.00" departDelay="0.00" arrival="179.00" arrivalLane="51i_0" arrivalPos="6.00" arrivalSpeed="13.89" duration="103.00" routeLength="1019.47" waitingTime="0.00" waitingCount="0" stopTime="0.00" timeLoss="27.82" rerouteNo="0" devices="tripinfo_left_101" vType="carWE" speedFactor="0.96" vaporized=""/>
    <tripinfo id="left_97" depart="73.00" departLane="52o_0" departPos="4.60" departSpeed="0.00" departDelay="0.00" arrival="183.00" arrivalLane="51i_0" arrivalPos="6.00" arrivalSpeed="14.84" duration="110.00" routeLength="1019.47" waitingTime="3.00" waitingCount="1" stopTime="0.00" timeLoss="30.26" rerouteNo="0" devices="tripinfo_left_97" vType="carWE" speedFactor="0.91" vaporized=""/>
    <tripinfo id="left_109" depart="82.00" departLane="52o_0" departPos="4.60" departSpeed="0.00" departDelay="0.00" arrival="184.00" arrivalLane="54i_0" arrivalPos="10.00" arrivalSpeed="10.34" duration="102.00" routeLength="1004.95" waitingTime="0.00" waitingCount="0" stopTime="0.00" timeLoss="28.15" rerouteNo="0" devices="tripinfo_left_109" vType="carWE" speedFactor="0.96" vaporized=""/>
    <tripinfo id="right_104" depart="79.00" departLane="51o_0" departPos="4.60" departSpeed="0.00" departDelay="0.00" arrival="185.00" arrivalLane="53i_0" arrivalPos="10.00" arrivalSpeed="11.22" duration="106.00" routeLength="1004.95" waitingTime="0.00" waitingCount="0" stopTime="0.00" timeLoss="26.66" rerouteNo="0" devices="tripinfo_right_104" vType="carWE" speedFactor="0.89" vaporized=""/>
    <tripinfo id="left_113" depart="85.00" departLane="52o_0" departPos="2.60" departSpeed="0.00" departDelay="0.00" arrival="185.00" arrivalLane="51i_0" arrivalPos="6.00" arrivalSpeed="11.46" duration="100.00" routeLength="1021.47" waitingTime="0.00" waitingCount="0" stopTime="0.00" timeLoss="28.16" rerouteNo="0" devices="tripinfo_left_113" vType="motorWE" speedFactor="1.01" vaporized=""/>
    <tripinfo id="left_117" depart="88.00" departLane="52o_0" departPos="4.60" departSpeed="0.00" departDelay="0.00" arrival="186.00" arrivalLane="54i_0" arrivalPos="10.00" arrivalSpeed="19.09" duration="98.00" routeLength="1004.95" waitingTime="0.00" waitingCount="0" stopTime="0.00" timeLoss="26.94" rerouteNo="0" devices="tripinfo_left_117" vType="carWE" speedFactor="1.00" vaporized=""/>
    <tripinfo id="right_108" depart="82.00" departLane="51o_0" departPos="4.60" departSpeed="0.00" departDelay="0.00" arrival="187.00" arrivalLane="53i_0" arrivalPos="10.00" arrivalSpeed="19.89" duration="105.00" routeLength="1004.95" waitingTime="0.00" waitingCount="0" stopTime="0.00" timeLoss="38.16" rerouteNo="0" devices="tripinfo_right_108" vType="carWE" speedFactor="1.06" vaporized=""/>
    <tripinfo id="left_121" depart="91.00" departLane="52o_0" departPos="4.60" departSpeed="0.00" departDelay="0.00" arrival="188.00" arrivalLane="54i_0" arrivalPos="10.00" arrivalSpeed="13.69" duration="97.00" routeLength="1004.95" waitingTime="0.00" waitingCount="0" stopTime="0.00" timeLoss="32.89" rerouteNo="0" devices="tripinfo_left_121" vType="carWE" speedFactor="1.10" vaporized=""/>
    <tripinfo id="right_92" depart="70.00" departLane="51o_0" departPos="4.60" departSpeed="0.00" departDelay="0.00" arrival="189.00" arrivalLane="52i_0" arrivalPos="6.00" arrivalSpeed="15.41" duration="119.00" routeLength="1019.47" waitingTime="0.00" waitingCount="0" stopTime="0.00" timeLoss="32.45" rerouteNo="0" devices="tripinfo_right_92" vType="carWE" speedFactor="0.83" vaporized=""/>
    <tripinfo id="right_116" depart="88.00" departLane="51o_0" departPos="4.60" departSpeed="0.00" departDelay="0.00" arrival="189.00" arrivalLane="53i_0" arrivalPos="10.00" arrivalSpeed="22.85" duration="101.00" routeLength="1004.95" waitingTime="0.00" waitingCount="0" stopTime="0.00" timeLoss="40.45" rerouteNo="0" devices="tripinfo_right_116" vType="carWE" speedFactor="1.18" vaporized=""/>
    <tripinfo id="left_125" depart="94.00" departLane="52o_0" departPos="4.60" departSpeed="0.00" departDelay="0.00" arrival="190.00" arrivalLane="54i_0" arrivalPos="10.00" arrivalSpeed="18.13" duration="96.00" routeLength="1004.95" waitingTime="0.00" waitingCount="0" stopTime="0.00" timeLoss="34.42" rerouteNo="0" devices="tripinfo_left_125" vType="carWE" speedFactor="1.15" vaporized=""/>
    <tripinfo id="right_120" depart="91.00" departLane="51o_0" departPos="4.60" departSpeed="0.00" departDelay="0.00" arrival="192.00" arrivalLane="53i_0" arrivalPos="10.00" arrivalSpeed="12.25" duration="101.00" routeLength="1004.95" waitingTime="0.00" waitingCount="0" stopTime="0.00" timeLoss="26.00" rerouteNo="0" devices="tripinfo_right_120" vType="carWE" speedFactor="0.94" vaporized=""/>
    <tripinfo id="left_129" depart="97.00" departLane="52o_0" departPos="4.60" departSpeed="0.00" departDelay="0.00" arrival="193.00" arrivalLane="54i_0" arrivalPos="10.00" arrivalSpeed="17.47" duration="96.00" routeLength="1004.95" waitingTime="0.00" waitingCount="0" stopTime="0.00" timeLoss="25.67" rerouteNo="0" devices="tripinfo_left_129" vType="carWE" speedFactor="1.01" vaporized=""/>
    <tripinfo id="right_124" depart="94.00" departLane="51o_0" departPos="4.60" departSpeed="0.00" departDelay="0.00" arrival="195.00" arrivalLane="53i_0" arrivalPos="10.00" arrivalSpeed="10.55" duration="101.00" routeLength="1004.95" waitingTime="0.00" waitingCount="0" stopTime="0.00" timeLoss="34.03" rerouteNo="0" devices="tripinfo_right_124" vType="carWE" speedFactor="1.06" vaporized=""/>